-5.364898614000000525e+05
-5.364898373000000138e+05
-5.364898098999999929e+05
-5.364897793000000529e+05
-5.364897456000000238e+05
-5.364897083000000566e+05
-5.364896679000000004e+05
-5.364896245000000345e+05
-5.364895781000000425e+05
-5.364895287000000244e+05
-5.364894764000000432e+05
-5.364894213999999920e+05
-5.364893636999999871e+05
-5.364893033999999752e+05
-5.364892406999999657e+05
-5.364891757999999681e+05
-5.364891086000000359e+05
-5.364890396000000183e+05
-5.364889686000000220e+05
-5.364888959999999497e+05
-5.364888218999999808e+05
-5.364887463999999454e+05
-5.364886696999999695e+05
-5.364885921000000089e+05
-5.364885135000000009e+05
-5.364884344000000274e+05
-5.364883547000000253e+05
-5.364882746999999508e+05
-5.364881944999999832e+05
-5.364881143999999622e+05
-5.364880344999999506e+05
-5.364879549999999581e+05
-5.364878760999999940e+05
-5.364877979999999516e+05
-5.364877208000000101e+05
-5.364876446999999462e+05
-5.364875699999999488e+05
-5.364874967000000179e+05
-5.364874252000000561e+05
-5.364873554999999469e+05
-5.364872878000000492e+05
-5.364872221999999601e+05
-5.364871589999999851e+05
-5.364870982999999542e+05
-5.364870400999999838e+05
-5.364869847000000300e+05
-5.364869320999999763e+05
-5.364868824000000022e+05
-5.364868358000000007e+05
-5.364867922999999719e+05
-5.364867519000000320e+05
-5.364867147999999579e+05
-5.364866811000000453e+05
-5.364866506000000518e+05
-5.364866236000000499e+05
-5.364865999000000302e+05
-5.364865797000000020e+05
-5.364865627999999560e+05
-5.364865494999999646e+05
-5.364865394999999553e+05
-5.364865328999999911e+05
-5.364865296999999555e+05
-5.364865298999999650e+05
-5.364865333000000101e+05
-5.364865400000000373e+05
-5.364865498999999836e+05
-5.364865629000000190e+05
-5.364865788999999641e+05
-5.364865979000000516e+05
-5.364866197999999858e+05
-5.364866443000000436e+05
-5.364866715000000549e+05
-5.364867012000000104e+05
-5.364867332000000170e+05
-5.364867674000000115e+05
-5.364868035999999847e+05
-5.364868416999999899e+05
-5.364868813999999547e+05
-5.364869226999999955e+05
-5.364869653000000399e+05
-5.364870091000000248e+05
-5.364870537999999942e+05
-5.364870993000000017e+05
-5.364871454000000376e+05
-5.364871918999999762e+05
-5.364872386999999871e+05
-5.364872854999999981e+05
-5.364873320999999996e+05
-5.364873784000000451e+05
-5.364874242000000086e+05
-5.364874693999999436e+05
-5.364875137000000104e+05
-5.364875570999999763e+05
-5.364875993000000017e+05
-5.364876402000000235e+05
-5.364876796999999788e+05
-5.364877177000000374e+05
-5.364877539999999572e+05
-5.364877885000000242e+05
-5.364878210999999428e+05
-5.364878517999999458e+05
-5.364878802999999607e+05
-5.364879067999999970e+05
-5.364879309999999823e+05
-5.364879529999999795e+05
-5.364879725999999791e+05
-5.364879899999999907e+05
-5.364880050000000047e+05
-5.364880174999999581e+05
-5.364880276999999769e+05
-5.364880355999999447e+05
-5.364880409999999683e+05
-5.364880441000000574e+05
-5.364880448999999790e+05
-5.364880433999999659e+05
-5.364880398000000278e+05
-5.364880339999999851e+05
-5.364880263000000268e+05
-5.364880165999999736e+05
-5.364880052000000142e+05
-5.364879919999999693e+05
-5.364879771999999648e+05
-5.364879608999999473e+05
-5.364879431999999797e+05
-5.364879242999999551e+05
-5.364879041999999899e+05
-5.364878830000000307e+05
-5.364878610000000335e+05
-5.364878381000000518e+05
-5.364878144999999786e+05
-5.364877904000000563e+05
-5.364877658999999985e+05
-5.364877410000000382e+05
-5.364877160000000149e+05
-5.364876907999999821e+05
-5.364876657000000123e+05
-5.364876406999999890e+05
-5.364876158999999752e+05
-5.364875916000000434e+05
-5.364875675999999512e+05
-5.364875442000000039e+05
-5.364875215000000317e+05
-5.364874995000000345e+05
-5.364874784000000218e+05
-5.364874581999999937e+05
-5.364874390999999596e+05
-5.364874209999999730e+05
-5.364874041999999899e+05
-5.364873885999999475e+05
-5.364873743999999715e+05
-5.364873615999999456e+05
-5.364873503999999957e+05
-5.364873406999999424e+05
-5.364873327000000281e+05
-5.364873262999999570e+05
-5.364873216999999713e+05
-5.364873188000000082e+05
-5.364873177000000142e+05
-5.364873185000000522e+05
-5.364873209999999963e+05
-5.364873253999999724e+05
-5.364873316000000341e+05
-5.364873395999999484e+05
-5.364873493999999482e+05
-5.364873608999999706e+05
-5.364873741999999620e+05
-5.364873889999999665e+05
-5.364874054999999935e+05
-5.364874235000000335e+05
-5.364874429999999702e+05
-5.364874638000000268e+05
-5.364874858999999706e+05
-5.364875091999999713e+05
-5.364875335999999661e+05
-5.364875590000000084e+05
-5.364875853000000352e+05
-5.364876123000000371e+05
-5.364876400000000140e+05
-5.364876681000000099e+05
-5.364876966999999713e+05
-5.364877254999999423e+05
-5.364877545000000391e+05
-5.364877833999999566e+05
-5.364878122000000440e+05
-5.364878408000000054e+05
-5.364878689999999478e+05
-5.364878965999999782e+05
-5.364879237000000430e+05
-5.364879499000000069e+05
-5.364879753000000492e+05
-5.364879997000000440e+05
-5.364880228999999817e+05
-5.364880448999999790e+05
-5.364880655000000261e+05
-5.364880845999999437e+05
-5.364881021999999648e+05
-5.364881180999999633e+05
-5.364881323000000557e+05
-5.364881445999999996e+05
-5.364881550000000279e+05
-5.364881635000000242e+05
-5.364881698999999790e+05
-5.364881742000000086e+05
-5.364881763000000501e+05
-5.364881763000000501e+05
-5.364881739999999991e+05
-5.364881694000000134e+05
-5.364881624999999767e+05
-5.364881533000000054e+05
-5.364881415999999736e+05
-5.364881276000000071e+05
-5.364881110000000335e+05
-5.364880919999999460e+05
-5.364880705999999773e+05
-5.364880466000000015e+05
-5.364880200999999652e+05
-5.364879912999999942e+05
-5.364879599999999627e+05
-5.364879263999999966e+05
-5.364878904000000330e+05
-5.364878521000000183e+05
-5.364878116999999620e+05
-5.364877691000000341e+05
-5.364877245000000112e+05
-5.364876779999999562e+05
-5.364876295999999857e+05
-5.364875796000000555e+05
-5.364875278999999864e+05
-5.364874747000000207e+05
-5.364874202000000514e+05
-5.364873645000000251e+05
-5.364873077000000048e+05
-5.364872500000000000e+05
-5.364871916000000201e+05
-5.364871326000000117e+05
-5.364870731999999844e+05
-5.364870135000000009e+05
-5.364869538000000175e+05
-5.364868941999999806e+05
-5.364868349000000162e+05
-5.364867759999999544e+05
-5.364867177999999840e+05
-5.364866604999999981e+05
-5.364866041999999434e+05
-5.364865489999999991e+05
-5.364864952999999514e+05
-5.364864431000000332e+05
-5.364863926000000210e+05
-5.364863440000000410e+05
-5.364862974000000395e+05
-5.364862528999999631e+05
-5.364862108000000007e+05
-5.364861711000000359e+05
-5.364861339999999618e+05
-5.364860995999999577e+05
-5.364860679000000237e+05
-5.364860391000000527e+05
-5.364860132999999914e+05
-5.364859906000000192e+05
-5.364859708999999566e+05
-5.364859544999999925e+05
-5.364859412000000011e+05
-5.364859313000000548e+05
-5.364859246999999741e+05
-5.364859213999999920e+05
-5.364859215000000549e+05
-5.364859250000000466e+05
-5.364859318999999668e+05
-5.364859420999999857e+05
-5.364859557000000495e+05
-5.364859725999999791e+05
-5.364859928000000073e+05
-5.364860163000000175e+05
-5.364860429999999469e+05
-5.364860729000000283e+05
-5.364861058000000194e+05
-5.364861417999999830e+05
-5.364861805999999633e+05
-5.364862223000000231e+05
-5.364862669000000460e+05
-5.364863140000000130e+05
-5.364863636999999871e+05
-5.364864157999999588e+05
-5.364864701999999816e+05
-5.364865267999999924e+05
-5.364865855000000447e+05
-5.364866461000000127e+05
-5.364867084999999497e+05
-5.364867724999999627e+05
-5.364868381000000518e+05
-5.364869050000000279e+05
-5.364869732000000076e+05
-5.364870424000000348e+05
-5.364871123999999836e+05
-5.364871833000000333e+05
-5.364872547000000486e+05
-5.364873264999999665e+05
-5.364873985000000102e+05
-5.364874705000000540e+05
-5.364875424999999814e+05
-5.364876141999999527e+05
-5.364876853000000119e+05
-5.364877558999999892e+05
-5.364878255999999819e+05
-5.364878941999999806e+05
-5.364879616999999853e+05
-5.364880278999999864e+05
-5.364880925000000279e+05
-5.364881554999999935e+05
-5.364882166999999899e+05
-5.364882759999999544e+05
-5.364883331999999937e+05
-5.364883882000000449e+05
-5.364884409000000451e+05
-5.364884912000000477e+05
-5.364885389999999898e+05
-5.364885842999999877e+05
-5.364886269999999786e+05
-5.364886670999999624e+05
-5.364887044000000460e+05
-5.364887388999999966e+05
-5.364887706999999937e+05
-5.364887996000000276e+05
-5.364888257000000449e+05
-5.364888490000000456e+05
-5.364888693999999668e+05
-5.364888869999999879e+05
-5.364889017000000458e+05
-5.364889135000000242e+05
-5.364889224999999860e+05
-5.364889285999999847e+05
-5.364889320000000298e+05
-5.364889324999999953e+05
-5.364889303999999538e+05
-5.364889255000000121e+05
-5.364889181000000099e+05
-5.364889081000000006e+05
-5.364888956999999937e+05
-5.364888808999999892e+05
-5.364888638000000501e+05
-5.364888445999999531e+05
-5.364888233999999939e+05
-5.364888003000000026e+05
-5.364887754999999888e+05
-5.364887489000000060e+05
-5.364887208999999566e+05
-5.364886916000000201e+05
-5.364886611000000266e+05
-5.364886295000000391e+05
-5.364885969999999506e+05
-5.364885637000000570e+05
-5.364885298000000184e+05
-5.364884954999999609e+05
-5.364884608999999473e+05
-5.364884261999999871e+05
-5.364883915000000270e+05
-5.364883569000000134e+05
-5.364883227000000188e+05
-5.364882891000000527e+05
-5.364882560000000522e+05
-5.364882238999999827e+05
-5.364881927000000142e+05
-5.364881626999999862e+05
-5.364881339999999618e+05
-5.364881069000000134e+05
-5.364880814000000246e+05
-5.364880577999999514e+05
-5.364880361000000266e+05
-5.364880165000000270e+05
-5.364879991000000155e+05
-5.364879841000000015e+05
-5.364879714999999851e+05
-5.364879614999999758e+05
-5.364879540999999736e+05
-5.364879492999999784e+05
-5.364879472999999998e+05
-5.364879481000000378e+05
-5.364879516000000294e+05
-5.364879579000000376e+05
-5.364879668999999994e+05
-5.364879786999999778e+05
-5.364879932000000263e+05
-5.364880102999999654e+05
-5.364880300999999745e+05
-5.364880524000000441e+05
-5.364880773000000045e+05
-5.364881045999999624e+05
-5.364881343999999808e+05
-5.364881663999999873e+05
-5.364882007000000449e+05
-5.364882371000000276e+05
-5.364882756999999983e+05
-5.364883162000000011e+05
-5.364883586999999825e+05
-5.364884028999999864e+05
-5.364884488000000129e+05
-5.364884962000000523e+05
-5.364885450999999885e+05
-5.364885953000000445e+05
-5.364886465999999782e+05
-5.364886988999999594e+05
-5.364887521000000415e+05
-5.364888059000000358e+05
-5.364888601999999955e+05
-5.364889148999999743e+05
-5.364889695999999531e+05
-5.364890243000000482e+05
-5.364890788000000175e+05
-5.364891328999999678e+05
-5.364891864000000060e+05
-5.364892389999999432e+05
-5.364892907000000123e+05
-5.364893412000000244e+05
-5.364893904000000330e+05
-5.364894379999999655e+05
-5.364894838999999920e+05
-5.364895278000000399e+05
-5.364895696999999927e+05
-5.364896091999999480e+05
-5.364896461999999592e+05
-5.364896805999999633e+05
-5.364897121000000043e+05
-5.364897406000000192e+05
-5.364897659999999451e+05
-5.364897879999999423e+05
-5.364898064000000013e+05
-5.364898212999999523e+05
-5.364898323999999557e+05
-5.364898395000000019e+05
-5.364898431000000564e+05
-5.364898416999999899e+05
-5.364898364000000292e+05
-5.364898268999999855e+05
-5.364898129000000190e+05
-5.364897944000000134e+05
-5.364897715000000317e+05
-5.364897439000000013e+05
-5.364897116999999853e+05
-5.364896750000000466e+05
-5.364896335999999428e+05
-5.364895875000000233e+05
-5.364895368999999482e+05
-5.364894817999999505e+05
-5.364894220999999670e+05
-5.364893580000000075e+05
-5.364892896000000183e+05
-5.364892168999999994e+05
-5.364891398999999510e+05
-5.364890590000000084e+05
-5.364889740999999922e+05
-5.364888854000000283e+05
-5.364887929999999469e+05
-5.364886970999999903e+05
-5.364885979000000516e+05
-5.364884954999999609e+05
-5.364883900999999605e+05
-5.364882818999999436e+05
-5.364881709999999730e+05
-5.364880577999999514e+05
-5.364879422999999952e+05
-5.364878249000000069e+05
-5.364877055999999866e+05
-5.364875847999999532e+05
-5.364874627000000328e+05
-5.364873394000000553e+05
-5.364872153000000399e+05
-5.364870905999999959e+05
-5.364869655000000494e+05
-5.364868403000000399e+05
-5.364867151999999769e+05
-5.364865905999999959e+05
-5.364864666999999899e+05
-5.364863438000000315e+05
-5.364862221999999601e+05
-5.364861021000000183e+05
-5.364859838000000454e+05
-5.364858678000000073e+05
-5.364857541000000201e+05
-5.364856432999999961e+05
-5.364855354000000516e+05
-5.364854307999999728e+05
-5.364853297999999486e+05
-5.364852327999999980e+05
-5.364851398000000045e+05
-5.364850511999999871e+05
-5.364849673000000184e+05
-5.364848882000000449e+05
-5.364848142999999691e+05
-5.364847456999999704e+05
-5.364846824999999953e+05
-5.364846250999999465e+05
-5.364845736000000034e+05
-5.364845280000000494e+05
-5.364844886000000406e+05
-5.364844555000000400e+05
-5.364844287999999942e+05
-5.364844085000000196e+05
-5.364843946999999462e+05
-5.364843874999999534e+05
-5.364843867999999784e+05
-5.364843928000000305e+05
-5.364844052000000374e+05
-5.364844242000000086e+05
-5.364844496000000509e+05
-5.364844814000000479e+05
-5.364845193999999901e+05
-5.364845635999999940e+05
-5.364846138000000501e+05
-5.364846698000000324e+05
-5.364847314999999944e+05
-5.364847987000000430e+05
-5.364848712000000523e+05
-5.364849486999999499e+05
-5.364850311000000220e+05
-5.364851180000000168e+05
-5.364852092000000412e+05
-5.364853044999999693e+05
-5.364854035999999614e+05
-5.364855060999999987e+05
-5.364856117999999551e+05
-5.364857203999999911e+05
-5.364858314999999711e+05
-5.364859449000000022e+05
-5.364860603999999585e+05
-5.364861774999999907e+05
-5.364862959000000264e+05
-5.364864155000000028e+05
-5.364865357999999542e+05
-5.364866565000000410e+05
-5.364867774999999674e+05
-5.364868983000000007e+05
-5.364870187999999616e+05
-5.364871385999999475e+05
-5.364872574999999488e+05
-5.364873750999999465e+05
-5.364874914000000572e+05
-5.364876060999999754e+05
-5.364877188000000315e+05
-5.364878294999999925e+05
-5.364879379000000190e+05
-5.364880437999999849e+05
-5.364881469000000507e+05
-5.364882473000000464e+05
-5.364883445000000065e+05
-5.364884385999999940e+05
-5.364885293999999994e+05
-5.364886165999999503e+05
-5.364887003000000259e+05
-5.364887800999999745e+05
-5.364888560999999754e+05
-5.364889281000000192e+05
-5.364889960000000428e+05
-5.364890596999999834e+05
-5.364891191999999573e+05
-5.364891742999999551e+05
-5.364892249999999767e+05
-5.364892711999999592e+05
-5.364893129999999655e+05
-5.364893503000000492e+05
-5.364893830999999773e+05
-5.364894115000000456e+05
-5.364894353999999585e+05
-5.364894549000000115e+05
-5.364894699999999721e+05
-5.364894808999999659e+05
-5.364894875000000466e+05
-5.364894899999999907e+05
-5.364894886000000406e+05
-5.364894832000000170e+05
-5.364894740000000456e+05
-5.364894612000000197e+05
-5.364894448000000557e+05
-5.364894250999999931e+05
-5.364894020999999484e+05
-5.364893760999999940e+05
-5.364893471000000136e+05
-5.364893153000000166e+05
-5.364892809000000125e+05
-5.364892441000000108e+05
-5.364892049999999581e+05
-5.364891637999999803e+05
-5.364891206999999704e+05
-5.364890759000000544e+05
-5.364890294999999460e+05
-5.364889817000000039e+05
-5.364889325999999419e+05
-5.364888824999999488e+05
-5.364888314999999711e+05
-5.364887796999999555e+05
-5.364887273000000278e+05
-5.364886744000000181e+05
-5.364886212999999989e+05
-5.364885679999999702e+05
-5.364885147000000579e+05
-5.364884616000000387e+05
-5.364884087999999756e+05
-5.364883564999999944e+05
-5.364883048000000417e+05
-5.364882537999999477e+05
-5.364882036999999546e+05
-5.364881546000000089e+05
-5.364881066000000574e+05
-5.364880598999999929e+05
-5.364880145000000484e+05
-5.364879706999999471e+05
-5.364879283999999752e+05
-5.364878878000000259e+05
-5.364878490000000456e+05
-5.364878120999999810e+05
-5.364877770999999484e+05
-5.364877439999999478e+05
-5.364877129999999888e+05
-5.364876840000000084e+05
-5.364876570999999531e+05
-5.364876323000000557e+05
-5.364876097000000300e+05
-5.364875892000000458e+05
-5.364875709000000497e+05
-5.364875548000000417e+05
-5.364875407999999588e+05
-5.364875291000000434e+05
-5.364875195000000531e+05
-5.364875121000000509e+05
-5.364875069000000367e+05
-5.364875039000000106e+05
-5.364875030000000261e+05
-5.364875043000000296e+05
-5.364875076000000117e+05
-5.364875128999999724e+05
-5.364875202999999747e+05
-5.364875294999999460e+05
-5.364875405999999493e+05
-5.364875535000000382e+05
-5.364875681000000332e+05
-5.364875844000000507e+05
-5.364876021000000183e+05
-5.364876212999999989e+05
-5.364876417999999830e+05
-5.364876635999999708e+05
-5.364876864000000060e+05
-5.364877103000000352e+05
-5.364877349000000395e+05
-5.364877602999999654e+05
-5.364877863000000361e+05
-5.364878127000000095e+05
-5.364878392999999924e+05
-5.364878660999999847e+05
-5.364878930000000400e+05
-5.364879196999999695e+05
-5.364879460999999428e+05
-5.364879721000000136e+05
-5.364879976000000024e+05
-5.364880226000000257e+05
-5.364880466999999480e+05
-5.364880701000000117e+05
-5.364880925999999745e+05
-5.364881141999999527e+05
-5.364881347000000533e+05
-5.364881541000000434e+05
-5.364881722999999765e+05
-5.364881892999999691e+05
-5.364882049000000115e+05
-5.364882192000000505e+05
-5.364882319999999600e+05
-5.364882432999999728e+05
-5.364882528999999631e+05
-5.364882608999999939e+05
-5.364882671000000555e+05
-5.364882715000000317e+05
-5.364882739000000292e+05
-5.364882743999999948e+05
-5.364882728999999817e+05
-5.364882693000000436e+05
-5.364882637000000104e+05
-5.364882558999999892e+05
-5.364882460999999894e+05
-5.364882341999999480e+05
-5.364882203000000445e+05
-5.364882040999999736e+05
-5.364881859999999870e+05
-5.364881659999999683e+05
-5.364881441000000341e+05
-5.364881202999999514e+05
-5.364880947999999626e+05
-5.364880675000000047e+05
-5.364880387000000337e+05
-5.364880082999999868e+05
-5.364879764000000432e+05
-5.364879433000000427e+05
-5.364879089000000386e+05
-5.364878734000000404e+05
-5.364878368999999948e+05
-5.364877994000000181e+05
-5.364877613000000129e+05
-5.364877225000000326e+05
-5.364876831999999704e+05
-5.364876435000000056e+05
-5.364876036000000313e+05
-5.364875637000000570e+05
-5.364875237999999663e+05
-5.364874840000000549e+05
-5.364874446000000462e+05
-5.364874057000000030e+05
-5.364873675000000512e+05
-5.364873299999999581e+05
-5.364872933999999659e+05
-5.364872578999999678e+05
-5.364872236000000266e+05
-5.364871905999999726e+05
-5.364871589999999851e+05
-5.364871289999999572e+05
-5.364871006999999518e+05
-5.364870742000000319e+05
-5.364870496000000276e+05
-5.364870269000000553e+05
-5.364870063999999547e+05
-5.364869878999999491e+05
-5.364869716999999946e+05
-5.364869577999999747e+05
-5.364869460999999428e+05
-5.364869368999999715e+05
-5.364869300000000512e+05
-5.364869255999999586e+05
-5.364869237000000430e+05
-5.364869242000000086e+05
-5.364869270999999717e+05
-5.364869325999999419e+05
-5.364869403999999631e+05
-5.364869507000000449e+05
-5.364869634000000078e+05
-5.364869784000000218e+05
-5.364869956999999704e+05
-5.364870152999999700e+05
-5.364870370999999577e+05
-5.364870609999999870e+05
-5.364870868999999948e+05
-5.364871147999999812e+05
-5.364871445999999996e+05
-5.364871763000000501e+05
-5.364872095999999437e+05
-5.364872445999999763e+05
-5.364872811000000220e+05
-5.364873190000000177e+05
-5.364873582000000170e+05
-5.364873987000000197e+05
-5.364874401999999536e+05
-5.364874827999999980e+05
-5.364875261999999639e+05
-5.364875703999999678e+05
-5.364876152999999467e+05
-5.364876607000000076e+05
-5.364877064999999711e+05
-5.364877526999999536e+05
-5.364877989999999991e+05
-5.364878455000000540e+05
-5.364878919000000460e+05
-5.364879381000000285e+05
-5.364879841999999480e+05
-5.364880298000000184e+05
-5.364880751000000164e+05
-5.364881199999999953e+05
-5.364881637999999803e+05
-5.364882071999999462e+05
-5.364882497000000440e+05
-5.364882913000000408e+05
-5.364883318999999901e+05
-5.364883715000000084e+05
-5.364884098000000231e+05
-5.364884470000000438e+05
-5.364884827999999980e+05
-5.364885171000000555e+05
-5.364885500000000466e+05
-5.364885812999999616e+05
-5.364886110000000335e+05
-5.364886389000000199e+05
-5.364886650000000373e+05
-5.364886892000000225e+05
-5.364887114000000292e+05
-5.364887314999999944e+05
-5.364887495000000345e+05
-5.364887652999999700e+05
-5.364887789000000339e+05
-5.364887900999999838e+05
-5.364887989999999991e+05
-5.364888055000000168e+05
-5.364888094999999739e+05
-5.364888111000000499e+05
-5.364888101999999490e+05
-5.364888068000000203e+05
-5.364888009000000311e+05
-5.364887924999999814e+05
-5.364887815999999875e+05
-5.364887682000000495e+05
-5.364887523999999976e+05
-5.364887341999999480e+05
-5.364887134999999544e+05
-5.364886905999999726e+05
-5.364886652000000468e+05
-5.364886376999999629e+05
-5.364886078999999445e+05
-5.364885759000000544e+05
-5.364885418000000063e+05
-5.364885056000000332e+05
-5.364884675000000279e+05
-5.364884274000000441e+05
-5.364883856000000378e+05
-5.364883419999999460e+05
-5.364882968000000110e+05
-5.364882500999999465e+05
-5.364882018999999855e+05
-5.364881524999999674e+05
-5.364881017999999458e+05
-5.364880500000000466e+05
-5.364879973000000464e+05
-5.364879438000000082e+05
-5.364878895000000484e+05
-5.364878344999999972e+05
-5.364877791999999899e+05
-5.364877234000000171e+05
-5.364876674000000348e+05
-5.364876112999999896e+05
-5.364875551999999443e+05
-5.364874991999999620e+05
-5.364874435000000522e+05
-5.364873882000000449e+05
-5.364873333000000566e+05
-5.364872791000000434e+05
-5.364872256999999518e+05
-5.364871731000000145e+05
-5.364871217000000179e+05
-5.364870716999999713e+05
-5.364870232000000542e+05
-5.364869760000000242e+05
-5.364869277999999467e+05
-5.364868832000000402e+05
-5.364868403999999864e+05
-5.364867994000000181e+05
-5.364867604000000283e+05
-5.364867236000000266e+05
-5.364866890000000130e+05
-5.364866567000000505e+05
-5.364866269000000320e+05
-5.364865995000000112e+05
-5.364865747999999439e+05
-5.364865527000000002e+05
-5.364865333999999566e+05
-5.364865171000000555e+05
-5.364865034000000451e+05
-5.364864923000000417e+05
-5.364864838000000454e+05
-5.364864786000000313e+05
-5.364864766000000527e+05
-5.364864764999999898e+05
-5.364864797000000253e+05
-5.364864856999999611e+05
-5.364864945000000298e+05
-5.364865060000000522e+05
-5.364865202000000281e+05
-5.364865370000000112e+05
-5.364865564000000013e+05
-5.364865781999999890e+05
-5.364866025000000373e+05
-5.364866291000000201e+05
-5.364866578999999911e+05
-5.364866888999999501e+05
-5.364867219000000041e+05
-5.364867567999999737e+05
-5.364867935999999754e+05
-5.364868320000000531e+05
-5.364868719000000274e+05
-5.364869133000000147e+05
-5.364869560000000056e+05
-5.364869999000000535e+05
-5.364870448000000324e+05
-5.364870905000000494e+05
-5.364871369000000414e+05
-5.364871840000000084e+05
-5.364872314000000479e+05
-5.364872789999999804e+05
-5.364873268000000389e+05
-5.364873743999999715e+05
-5.364874218000000110e+05
-5.364874688000000315e+05
-5.364875152999999700e+05
-5.364875609999999870e+05
-5.364876058999999659e+05
-5.364876496999999508e+05
-5.364876924000000581e+05
-5.364877338000000454e+05
-5.364877737000000197e+05
-5.364878122000000440e+05
-5.364878490000000456e+05
-5.364878839999999618e+05
-5.364879172000000253e+05
-5.364879486000000034e+05
-5.364879779000000563e+05
-5.364880052999999607e+05
-5.364880307000000030e+05
-5.364880540000000037e+05
-5.364880753000000259e+05
-5.364880945000000065e+05
-5.364881117000000086e+05
-5.364881267999999691e+05
-5.364881398999999510e+05
-5.364881509000000078e+05
-5.364881598999999696e+05
-5.364881668999999529e+05
-5.364881718999999575e+05
-5.364881748999999836e+05
-5.364881759000000311e+05
-5.364881750000000466e+05
-5.364881722000000300e+05
-5.364881676000000443e+05
-5.364881611000000266e+05
-5.364881528000000399e+05
-5.364881428999999771e+05
-5.364881313000000082e+05
-5.364881180999999633e+05
-5.364881034000000218e+05
-5.364880873000000138e+05
-5.364880698000000557e+05
-5.364880511000000406e+05
-5.364880313000000315e+05
-5.364880104000000283e+05
-5.364879886000000406e+05
-5.364879658999999519e+05
-5.364879425999999512e+05
-5.364879185999999754e+05
-5.364878941000000341e+05
-5.364878693000000203e+05
-5.364878440999999875e+05
-5.364878186999999452e+05
-5.364877933000000194e+05
-5.364877678999999771e+05
-5.364877425999999978e+05
-5.364877177000000374e+05
-5.364876931000000332e+05
-5.364876689999999944e+05
-5.364876454999999842e+05
-5.364876228999999585e+05
-5.364876010999999708e+05
-5.364875803999999771e+05
-5.364875609000000404e+05
-5.364875426000000443e+05
-5.364875257999999449e+05
-5.364875104000000283e+05
-5.364874967000000179e+05
-5.364874847999999765e+05
-5.364874747000000207e+05
-5.364874664999999804e+05
-5.364874603999999817e+05
-5.364874562999999616e+05
-5.364874544000000460e+05
-5.364874547000000020e+05
-5.364874571999999462e+05
-5.364874620000000577e+05
-5.364874692000000505e+05
-5.364874786999999778e+05
-5.364874904999999562e+05
-5.364875045999999857e+05
-5.364875211000000127e+05
-5.364875398000000278e+05
-5.364875607999999775e+05
-5.364875840000000317e+05
-5.364876093999999575e+05
-5.364876369000000414e+05
-5.364876665000000503e+05
-5.364876979999999749e+05
-5.364877314000000479e+05
-5.364877665000000270e+05
-5.364878033999999752e+05
-5.364878418999999994e+05
-5.364878817999999737e+05
-5.364879231999999611e+05
-5.364879658000000054e+05
-5.364880095000000438e+05
-5.364880542999999598e+05
-5.364880999000000302e+05
-5.364881461999999592e+05
-5.364881931000000332e+05
-5.364882404999999562e+05
-5.364882881999999518e+05
-5.364883360999999568e+05
-5.364883839999999618e+05
-5.364884318999999668e+05
-5.364884795000000158e+05
-5.364885267000000458e+05
-5.364885733999999939e+05
-5.364886195999999763e+05
-5.364886650000000373e+05
-5.364887095999999437e+05
-5.364887530999999726e+05
-5.364887955999999540e+05
-5.364888368999999948e+05
-5.364888769000000320e+05
-5.364889154000000563e+05
-5.364889523999999510e+05
-5.364889878000000026e+05
-5.364890213999999687e+05
-5.364890531000000192e+05
